BEGIN_CFG
 Size
	1
 Supercell
	25.00000000	0.00000000	0.00000000
	0.00000000	25.00000000	0.00000000
	0.00000000	0.00000000	25.00000000

 AtomData:	id	type	cartes_x	cartes_y	cartes_z	fx	fy	fz
		1	0	0.00000000	0.00000000	0.00000000	0.00000000	0.00000000	0.00000000	
 Energy
	0.94664775
 Feature	config_type	Single_Atom
END_CFG

